<?xml version="1.0"?>
<VTKFile type="UnstructuredGrid" version="2.2">
  <UnstructuredGrid>
    <Piece NumberOfPoints="9261" NumberOfCells="6000">
      <Points>
        <DataArray type="Float64" NumberOfComponents="3" format="ascii">0.8 -1 -1 1 -1 -1 1 -0.8 -1 1 -0.8 -0.8 0.9999999999999999 -0.8 -0.9 1 -0.9 -0.9 1 -0.9 -1 0.9 -0.9 -0.9 0.8999999999999999 -0.8999999999999999 -1 0.8999999999999999 -1 -1 1 -1 -0.8 1 -0.9 -0.8 0.9999999999999999 -1 -0.9 0.8999999999999999 -1 -0.8999999999999999 0.8 -0.8 -1 0.8999999999999999 -0.8 -0.8999999999999999 0.8999999999999999 -0.8 -1 0.8 -0.9 -1 0.8 -1 -0.8 0.8999999999999999 -0.8999999999999999 -0.8 0.8999999999999999 -1 -0.8 0.8 -1 -0.9 1 -0.6 -0.8 1 -0.7 -0.8 0.9999999999999999 -0.7 -0.9 0.9 -0.7 -0.9 0.8 -0.8 -0.8 0.8999999999999999 -0.8 -0.8 0.8 -0.8 -0.9 0.8 -0.9 -0.9 1 -0.8 -0.6 1 -1 -0.6 1 -0.9 -0.6 0.9999999999999999 -1 -0.7 0.9999999999999999 -0.9 -0.7 0.8999999999999999 -1 -0.7 0.9 -0.9 -0.7 0.9999999999999999 -0.8 -0.7 0.8 -0.9 -0.8 1 -0.6 -1 0.9999999999999999 -0.5999999999999999 -0.9 1 -0.7 -1 0.8999999999999999 -0.7 -1 0.8999999999999999 -0.7 -0.8 0.6000000000000001 -1 -1 0.7000000000000001 -0.9 -0.9 0.7 -0.8999999999999999 -1 0.7 -1 -1 0.8 -1 -0.6 0.8999999999999999 -0.8999999999999999 -0.5999999999999999 0.8999999999999999 -1 -0.5999999999999999 0.8 -1 -0.7 1 -0.8 -0.3999999999999999 1 -1 -0.3999999999999999 1 -0.9 -0.3999999999999999 0.9999999999999999 -1 -0.4999999999999999 0.9999999999999999 -0.9 -0.4999999999999999 0.8999999999999999 -1 -0.4999999999999999 0.9 -0.9 -0.4999999999999999 0.8999999999999999 -0.8 -0.7 0.7 -1 -0.8999999999999999 0.8 -0.6 -1 0.8999999999999999 -0.5999999999999999 -0.8999999999999999 0.8999999999999999 -0.5999999999999999 -1 0.8 -0.7 -1 1 -0.6 -0.6 0.9999999999999999 -0.5999999999999999 -0.7 1 -0.7 -0.7 0.9 -0.7 -0.7 0.8 -0.6 -0.8 0.8999999999999999 -0.5999999999999999 -0.8 0.8 -0.7 -0.8 0.8 -0.7 -0.9 0.6000000000000001 -0.8 -1 0.7 -0.8 -0.8999999999999999 0.7 -0.8 -1 0.6000000000000001 -0.9 -1 0.9999999999999999 -0.8 -0.4999999999999999 0.8 -0.8 -0.6 0.8999999999999999 -0.8 -0.5999999999999999 0.8 -0.9 -0.6 0.8 -0.9 -0.7 0.8 -1 -0.3999999999999999 0.8999999999999999 -0.8999999999999999 -0.3999999999999999 0.8999999999999999 -1 -0.3999999999999999 0.8 -1 -0.4999999999999999 1 -0.8 -0.2 1 -1 -0.2 1 -0.9 -0.2 0.9999999999999999 -1 -0.2999999999999999 0.9999999999999999 -0.9 -0.2999999999999999 0.8999999999999999 -1 -0.2999999999999999 0.9 -0.9 -0.2999999999999999 1 -0.7 -0.6 0.8 -0.8 -0.7 0.6000000000000001 -1 -0.8 0.7 -0.8999999999999999 -0.8 0.7 -1 -0.8 0.6000000000000001 -1 -0.9 1 -0.3999999999999999 -0.8 1 -0.4999999999999999 -0.8 0.9999999999999999 -0.4999999999999999 -0.9 0.9 -0.4999999999999999 -0.9 0.8 -0.5999999999999999 -0.9 0.8999999999999999 -0.5999999999999999 -0.7 0.7000000000000001 -0.7 -0.9 0.6000000000000001 -0.8 -0.8 0.7 -0.8 -0.8 0.6000000000000001 -0.8 -0.9 0.6000000000000001 -0.9 -0.9 0.8999999999999999 -0.8 -0.4999999999999999 0.7 -1 -0.7 0.7000000000000001 -0.9 -0.7 0.9999999999999999 -0.8 -0.2999999999999999 0.8 -0.8 -0.3999999999999999 0.8999999999999999 -0.8 -0.3999999999999999 0.8 -0.9 -0.3999999999999999 0.8 -0.9 -0.4999999999999999 0.8 -1 -0.2 0.8999999999999999 -0.8999999999999999 -0.2 0.8999999999999999 -1 -0.2 0.8 -1 -0.2999999999999999 1 -0.8 0 1 -1 0 1 -0.9 0 0.9999999999999999 -1 -0.09999999999999996 0.9999999999999999 -0.9 -0.09999999999999996 0.8999999999999999 -1 -0.09999999999999996 0.9 -0.9 -0.09999999999999998 0.8999999999999999 -0.7 -0.5999999999999999 0.6000000000000001 -0.9 -0.8 1 -0.3999999999999999 -1 0.9999999999999999 -0.3999999999999999 -0.9 1 -0.4999999999999999 -1 0.8999999999999999 -0.4999999999999999 -1 0.8999999999999999 -0.4999999999999999 -0.8 0.7 -0.7 -1 1 -0.3999999999999999 -0.6 1 -0.4999999999999999 -0.6 0.9999999999999999 -0.4999999999999999 -0.7 0.9 -0.4999999999999999 -0.7 0.8 -0.6 -0.6 0.8999999999999999 -0.5999999999999999 -0.5999999999999999 0.8 -0.5999999999999999 -0.7 0.8 -0.7 -0.7 0.7 -0.7 -0.8 0.4000000000000001 -1 -1 0.5000000000000001 -0.9 -0.9 0.5000000000000001 -0.8999999999999999 -1 0.5000000000000001 -1 -1 1 -0.6 -0.3999999999999999 1 -0.7 -0.3999999999999999 0.9999999999999999 -0.7 -0.4999999999999999 0.9 -0.7 -0.4999999999999999 0.8 -0.8 -0.4999999999999999 0.6000000000000001 -1 -0.6 0.7 -0.8999999999999999 -0.5999999999999999 0.7 -1 -0.5999999999999999 0.6000000000000001 -1 -0.7 0.8999999999999999 -0.8 -0.2999999999999999 0.7 -1 -0.4999999999999999 0.7000000000000001 -0.9 -0.4999999999999999 0.9999999999999999 -0.8 -0.09999999999999996 0.8 -0.8 -0.2 0.8999999999999999 -0.8 -0.2 0.8 -0.9 -0.2 0.8 -0.9 -0.2999999999999999 0.8 -1 0 0.8999999999999999 -0.8999999999999999 0 0.8999999999999999 -1 0 0.8 -1 -0.09999999999999996 1 -0.8 0.2000000000000002 1 -1 0.2000000000000002 1 -0.9 0.2000000000000002 0.9999999999999999 -1 0.1000000000000001 0.9999999999999999 -0.9 0.1000000000000001 0.8999999999999999 -1 0.1000000000000001 0.9 -0.9 0.1000000000000001 0.9999999999999999 -0.5999999999999999 -0.4999999999999999 0.8 -0.7 -0.6 0.7 -0.8 -0.7 0.5000000000000001 -1 -0.8999999999999999 0.8 -0.3999999999999999 -1 0.8999999999999999 -0.3999999999999999 -0.8999999999999999 0.8999999999999999 -0.3999999999999999 -1 0.8 -0.4999999999999999 -1 0.9999999999999999 -0.3999999999999999 -0.7 0.8 -0.3999999999999999 -0.8 0.8999999999999999 -0.3999999999999999 -0.8 0.8 -0.4999999999999999 -0.8 0.8 -0.4999999999999999 -0.9 0.6000000000000001 -0.6 -1 0.7 -0.5999999999999999 -0.8999999999999999 0.7 -0.5999999999999999 -1 0.6000000000000001 -0.7 -1 0.8999999999999999 -0.4999999999999999 -0.5999999999999999 0.7000000000000001 -0.7 -0.7 0.6000000000000001 -0.6 -0.8 0.7 -0.5999999999999999 -0.8 0.6000000000000001 -0.7 -0.8 0.6000000000000001 -0.7 -0.9 0.4000000000000001 -0.8 -1 0.5000000000000001 -0.8 -0.8999999999999999 0.5000000000000001 -0.8 -1 0.4000000000000001 -0.9 -1 0.8999999999999999 -0.7 -0.3999999999999999 0.6000000000000001 -0.8 -0.6 0.7 -0.8 -0.5999999999999999 0.6000000000000001 -0.9 -0.6 0.6000000000000001 -0.9 -0.7 1 -0.6 -0.2 1 -0.7 -0.2 0.9999999999999999 -0.7 -0.2999999999999999 0.9 -0.7 -0.2999999999999999 0.8 -0.8 -0.2999999999999999 0.6000000000000001 -1 -0.3999999999999999 0.7 -0.8999999999999999 -0.3999999999999999 0.7 -1 -0.3999999999999999 0.6000000000000001 -1 -0.4999999999999999 0.8999999999999999 -0.8 -0.09999999999999996 0.7 -1 -0.2999999999999999 0.7000000000000001 -0.9 -0.2999999999999999 0.9999999999999999 -0.8 0.1000000000000001 0.8 -0.8 0 0.8999999999999999 -0.8 0 0.8 -0.9 0 0.8 -0.9 -0.09999999999999996 0.8 -1 0.2000000000000002 0.8999999999999999 -0.8999999999999999 0.2000000000000002 0.8999999999999999 -1 0.2000000000000002 0.8 -1 0.1000000000000001 1 -0.8 0.4000000000000001 1 -1 0.4000000000000001 1 -0.9 0.4000000000000001 0.9999999999999999 -1 0.3000000000000002 0.9999999999999999 -0.9 0.3000000000000002 0.8999999999999999 -1 0.3000000000000002 0.9 -0.9 0.3000000000000002 0.8999999999999999 -0.5999999999999999 -0.4999999999999999 0.6000000000000001 -0.8 -0.7 0.4000000000000001 -1 -0.8 0.5000000000000001 -0.8999999999999999 -0.8 0.5000000000000001 -1 -0.8 0.4000000000000001 -1 -0.9 1 -0.2 -0.8 1 -0.2999999999999999 -0.8 0.9999999999999999 -0.2999999999999999 -0.9 0.9 -0.2999999999999999 -0.9 0.8 -0.3999999999999999 -0.9 0.8999999999999999 -0.3999999999999999 -0.7 0.7000000000000001 -0.4999999999999999 -0.9 0.6000000000000001 -0.5999999999999999 -0.9 1 -0.3999999999999999 -0.3999999999999999 0.9999999999999999 -0.3999999999999999 -0.4999999999999999 1 -0.4999999999999999 -0.4999999999999999 0.9 -0.4999999999999999 -0.4999999999999999 0.8 -0.3999999999999999 -0.6 0.8999999999999999 -0.3999999999999999 -0.5999999999999999 0.8 -0.4999999999999999 -0.6 0.8 -0.4999999999999999 -0.7 0.7 -0.5999999999999999 -0.7 0.5000000000000001 -0.7 -0.9 0.4000000000000001 -0.8 -0.8 0.5000000000000001 -0.8 -0.8 0.4000000000000001 -0.8 -0.9 0.4000000000000001 -0.9 -0.9 0.9999999999999999 -0.5999999999999999 -0.2999999999999999 0.8 -0.6 -0.3999999999999999 0.8999999999999999 -0.5999999999999999 -0.3999999999999999 0.8 -0.7 -0.3999999999999999 0.8 -0.7 -0.4999999999999999 0.7 -0.8 -0.4999999999999999 0.5000000000000001 -1 -0.7 0.5000000000000001 -0.9 -0.7 0.8999999999999999 -0.7 -0.2 0.6000000000000001 -0.8 -0.3999999999999999 0.7 -0.8 -0.3999999999999999 0.6000000000000001 -0.9 -0.3999999999999999 0.6000000000000001 -0.9 -0.4999999999999999 1 -0.6 0 1 -0.7 0 0.9999999999999999 -0.7 -0.09999999999999996 0.9 -0.7 -0.09999999999999998 0.8 -0.8 -0.09999999999999996 0.6000000000000001 -1 -0.2 0.7 -0.8999999999999999 -0.2 0.7 -1 -0.2 0.6000000000000001 -1 -0.2999999999999999 0.8999999999999999 -0.8 0.1000000000000001 0.7 -1 -0.09999999999999996 0.7000000000000001 -0.9 -0.09999999999999998 0.9999999999999999 -0.8 0.3000000000000002 0.8 -0.8 0.2000000000000002 0.8999999999999999 -0.8 0.2000000000000002 0.8 -0.9 0.2000000000000002 0.8 -0.9 0.1000000000000001 0.8 -1 0.4000000000000001 0.8999999999999999 -0.8999999999999999 0.4000000000000001 0.8999999999999999 -1 0.4000000000000001 0.8 -1 0.3000000000000002 1 -0.8 0.6000000000000001 1 -1 0.6000000000000001 1 -0.9 0.6000000000000001 0.9999999999999999 -1 0.5 0.9999999999999999 -0.9 0.5000000000000001 0.8999999999999999 -1 0.5000000000000001 0.9 -0.9 0.5000000000000001 1 -0.4999999999999999 -0.3999999999999999 0.8 -0.5999999999999999 -0.4999999999999999 0.7 -0.7 -0.5999999999999999 0.4000000000000001 -0.9 -0.8 1 -0.2 -1 0.9999999999999999 -0.2 -0.9 1 -0.2999999999999999 -1 0.8999999999999999 -0.2999999999999999 -1 0.8999999999999999 -0.2999999999999999 -0.8 0.7 -0.4999999999999999 -1 1 -0.2 -0.6 1 -0.2999999999999999 -0.6 0.9999999999999999 -0.2999999999999999 -0.7 0.9 -0.2999999999999999 -0.7 0.8 -0.3999999999999999 -0.7 0.7 -0.4999999999999999 -0.8 0.5000000000000001 -0.7 -1 0.8999999999999999 -0.3999999999999999 -0.4999999999999999 0.7000000000000001 -0.4999999999999999 -0.7 0.6000000000000001 -0.6 -0.6 0.7 -0.5999999999999999 
[...]
      <CellData>
        <DataArray type="UInt8" Name="vtkGhostType" format="ascii" RangeMin="0" RangeMax="1">0 0 0 0 0 0 0 0 0 0 0 0 0 0 0 0 0 0 0 0 0 0 0 0 0 0 0 0 0 0 0 0 0 0 0 0 0 0 0 0 0 0 0 0 0 0 0 0 0 0 0 0 0 0 0 0 0 0 0 0 0 0 0 0 0 0 0 0 0 0 0 0 0 0 0 0 0 0 0 0 0 0 0 0 0 0 0 0 0 0 0 0 0 0 0 0 0 0 0 0 0 0 0 0 0 0 0 0 0 0 0 0 0 0 0 0 0 0 0 0 0 0 0 0 0 0 0 0 0 0 0 0 0 0 0 0 0 0 0 0 0 0 0 0 0 0 0 0 0 0 0 0 0 0 0 0 0 0 0 0 0 0 0 0 0 0 0 0 0 0 0 0 0 0 0 0 0 0 0 0 0 0 0 0 0 0 0 0 0 0 0 0 0 0 0 0 0 0 0 0 0 0 0 0 0 0 0 0 0 0 0 0 0 0 0 0 0 0 0 0 0 0 0 0 0 0 0 0 0 0 0 0 0 0 0 0 0 0 0 0 0 0 0 0 0 0 0 0 0 0 0 0 0 0 0 0 0 0 0 0 0 0 0 0 0 0 0 0 0 0 0 0 0 0 0 0 0 0 0 0 0 0 0 0 0 0 0 0 0 0 0 0 0 0 0 0 0 0 0 0 0 0 0 0 0 0 0 0 0 0 0 0 0 0 0 0 0 0 0 0 0 0 0 0 0 0 0 0 0 0 0 0 0 0 0 0 0 0 0 0 0 0 0 0 0 0 0 0 0 0 0 0 0 0 0 0 0 0 0 0 0 0 0 0 0 0 0 0 0 0 0 0 0 0 0 0 0 0 0 0 0 0 0 0 0 0 0 0 0 0 0 0 0 0 0 0 0 0 0 0 0 0 0 0 0 0 0 0 0 0 0 0 0 0 0 0 0 0 0 0 0 0 0 0 0 0 0 0 0 0 0 0 0 0 0 0 0 0 0 0 0 0 0 0 0 0 0 0 0 0 0 0 0 0 0 0 0 0 0 0 0 0 0 0 0 0 0 0 0 0 0 0 0 0 0 0 0 0 0 0 0 0 0 0 0 0 0 0 0 0 0 0 0 0 0 0 0 0 0 0 0 0 0 0 0 0 0 0 0 0 0 0 0 0 0 0 0 0 0 0 0 0 0 0 0 0 0 0 0 0 0 0 0 0 0 0 0 0 0 0 0 0 0 0 0 0 0 0 0 0 0 0 0 0 0 0 0 0 0 0 0 0 0 0 0 0 0 0 0 0 0 0 0 0 0 0 0 0 0 0 0 0 0 0 0 0 0 0 0 0 0 0 0 0 0 0 0 0 0 0 0 0 0 0 0 0 0 0 0 0 0 0 0 0 0 0 0 0 0 0 0 0 0 0 0 0 0 0 0 0 0 0 0 0 0 0 0 0 0 0 0 0 0 0 0 0 0 0 0 0 0 0 0 0 0 0 0 0 0 0 0 0 0 0 0 0 0 0 0 0 0 0 0 0 0 0 0 0 0 0 0 0 0 0 0 0 0 0 0 0 0 0 0 0 0 0 0 0 0 0 0 0 0 0 0 0 0 0 0 0 0 0 0 0 0 0 0 0 0 0 0 0 0 0 0 0 0 0 0 0 0 0 0 0 0 0 0 0 0 0 0 0 0 0 0 0 0 0 0 0 0 0 0 0 0 0 0 0 0 0 0 0 0 0 0 0 0 0 0 0 0 0 0 0 0 0 0 0 0 0 0 0 0 0 0 0 0 0 0 0 0 0 0 0 0 0 0 0 0 0 0 0 0 0 0 0 0 0 0 0 0 0 0 0 0 0 0 0 0 0 0 0 0 0 0 0 0 0 0 0 0 0 0 0 0 0 0 0 0 0 0 0 0 0 0 0 0 0 0 0 0 0 0 0 0 0 0 0 0 0 0 0 0 0 0 0 0 0 0 0 0 0 0 0 0 0 0 0 0 0 0 0 0 0 0 0 0 0 0 0 0 0 0 0 0 0 0 0 0 0 0 0 0 0 0 0 0 0 0 0 0 0 0 0 0 0 0 0 0 0 0 0 0 0 0 0 0 0 0 0 0 0 0 0 0 0 0 0 0 0 0 0 0 0 0 0 0 0 0 0 0 0 0 0 0 0 0 0 0 0 0 0 0 0 0 0 0 0 0 0 0 0 0 0 0 0 0 0 0 0 0 0 0 0 0 0 0 0 0 0 0 0 0 0 0 0 0 0 0 0 0 0 0 0 0 0 0 0 0 0 0 0 0 0 0 0 0 0 0 0 0 0 0 0 0 0 0 0 0 0 0 0 0 0 0 0 0 0 0 0 0 0 0 0 0 0 0 0 0 0 0 0 0 0 0 0 0 0 0 0 0 0 0 0 0 0 0 0 0 0 0 0 0 0 0 0 0 0 0 0 0 0 0 0 0 0 0 0 0 0 0 0 0 0 0 0 0 0 0 0 0 0 0 0 0 0 0 0 0 0 0 0 0 0 0 0 0 0 0 0 0 0 0 0 0 0 0 0 0 0 0 0 0 0 0 0 0 0 0 0 0 0 0 0 0 0 0 0 0 0 0 0 0 0 0 0 0 0 0 0 0 0 0 0 0 0 0 0 0 0 0 0 0 0 0 0 0 0 0 0 0 0 0 0 0 0 0 0 0 0 0 0 0 0 0 0 0 0 0 0 0 0 0 0 0 0 0 0 0 0 0 0 0 0 0 0 0 0 0 0 0 0 0 0 0 0 0 0 0 0 0 0 0 0 0 0 0 0 0 0 0 0 0 0 0 0 0 0 0 0 0 0 0 0 0 0 0 0 0 0 0 0 0 0 0 0 0 0 0 0 0 0 0 0 0 0 0 0 0 0 0 0 0 0 0 0 0 0 0 0 0 0 0 0 0 0 0 0 0 0 0 0 0 0 0 0 0 0 0 0 0 0 0 0 0 0 0 0 0 0 0 0 0 0 0 0 0 0 0 0 0 0 0 0 0 0 0 0 0 0 0 0 0 0 0 0 0 0 0 0 0 0 0 0 0 0 0 0 0 0 0 0 0 0 0 0 0 0 0 0 0 0 0 0 0 0 0 0 0 0 0 0 0 0 0 0 0 0 0 0 0 0 0 0 0 0 0 0 0 0 0 0 0 0 0 0 0 0 0 0 0 0 0 0 0 0 0 0 0 0 0 0 0 0 0 0 0 0 0 0 0 0 0 0 0 0 0 0 0 0 0 0 0 0 0 0 0 0 0 0 0 0 0 0 0 0 0 0 0 0 0 0 0 0 0 0 0 0 0 0 0 0 0 0 0 0 0 0 0 0 0 0 0 0 0 0 0 0 0 0 0 0 0 0 0 0 0 0 0 0 0 0 0 0 0 0 0 0 0 0 0 0 0 0 0 0 0 0 0 0 0 0 0 0 0 0 0 0 0 0 0 0 0 0 0 0 0 0 0 0 0 0 0 0 0 0 0 0 0 0 0 0 0 0 0 0 0 0 0 0 0 0 0 0 0 0 0 0 0 0 0 0 0 0 0 0 0 0 0 0 0 0 0 0 0 0 0 0 0 0 0 0 0 0 0 0 0 0 0 0 0 0 0 0 0 0 0 0 0 0 0 0 0 0 0 0 0 0 0 0 0 0 0 0 0 0 0 0 0 0 0 0 0 0 0 0 0 0 0 0 0 0 0 0 0 0 0 0 0 0 0 0 0 0 0 0 0 0 0 0 0 0 0 0 0 0 0 0 0 0 0 0 0 0 0 0 0 0 0 0 0 0 0 0 0 0 0 0 0 0 0 0 0 0 0 0 0 0 0 0 0 0 0 0 0 0 0 0 0 0 0 0 0 0 0 0 0 0 0 0 0 0 0 0 0 0 0 0 0 0 0 0 0 0 0 0 0 0 0 0 0 0 0 0 0 0 0 0 0 0 0 0 0 0 0 0 0 0 0 0 0 0 0 0 0 0 0 0 0 0 0 0 0 0 0 0 0 0 0 0 0 0 0 0 0 0 0 0 0 0 0 0 0 0 0 0 0 0 0 0 0 0 0 0 0 0 0 0 0 0 0 0 0 0 0 0 0 0 0 0 0 0 0 0 0 0 0 0 0 0 0 0 0 0 0 0 0 0 0 0 0 0 0 0 0 0 0 0 0 0 0 0 0 0 0 0 0 0 0 0 0 0 0 0 0 0 0 0 0 0 0 0 0 0 0 0 0 0 0 0 0 0 0 0 0 0 0 0 0 0 0 0 0 0 0 0 0 0 0 0 0 0 0 0 0 0 0 0 0 0 0 0 0 0 0 0 0 0 0 0 0 0 0 0 0 0 0 0 0 0 0 0 0 0 0 0 0 0 0 0 0 0 0 0 0 0 0 0 0 0 0 0 0 0 0 0 0 0 0 0 0 0 0 0 0 0 0 0 0 0 0 0 0 0 0 0 0 0 0 0 0 0 0 0 0 0 0 0 0 0 0 0 0 0 0 0 0 0 0 0 0 0 0 0 0 0 0 0 0 0 0 0 0 0 0 0 0 0 0 0 0 0 0 0 0 0 0 0 0 0 0 0 0 0 0 0 0 0 0 0 0 0 0 0 0 0 0 0 0 0 0 0 0 0 0 0 0 0 0 0 0 0 0 0 0 0 0 0 0 0 0 0 0 0 0 0 0 0 0 0 0 0 0 0 0 0 0 0 0 0 0 0 0 0 0 0 0 0 0 0 0 0 0 0 0 0 0 0 0 0 0 0 0 0 0 0 0 0 0 0 0 0 0 0 0 0 0 0 0 0 0 0 0 0 0 0 0 0 0 0 0 0 0 0 0 0 0 0 0 0 0 0 0 0 0 0 0 0 0 0 0 0 0 0 0 0 0 0 0 0 0 0 0 0 0 0 0 0 0 0 0 0 0 0 0 0 0 0 0 0 0 0 0 0 0 0 0 0 0 0 0 0 0 0 0 0 0 0 0 0 0 0 0 0 0 0 0 0 0 0 0 0 0 0 0 0 0 0 0 0 0 0 0 0 0 0 0 0 0 0 0 0 0 0 0 0 0 0 0 0 0 0 0 0 0 0 0 0 0 0 0 0 0 0 0 0 0 0 0 0 0 0 0 0 0 0 0 0 0 0 0 0 0 0 0 0 0 0 0 0 0 0 0 0 0 0 0 0 0 0 0 0 0 0 0 0 0 0 0 0 0 0 0 0 0 0 0 0 0 0 0 0 0 0 0 0 0 0 0 0 0 0 0 0 0 0 0 0 0 0 0 0 0 0 0 0 0 0 0 0 0 0 0 0 0 0 0 0 0 0 0 0 0 0 0 0 0 0 0 0 0 0 0 0 0 0 0 0 0 0 0 0 0 0 0 0 0 0 0 0 0 0 0 0 0 0 0 0 0 0 0 0 0 0 0 0 0 0 0 0 0 0 0 0 0 0 0 0 0 0 0 0 0 0 0 0 0 0 0 0 0 0 0 0 0 0 0 0 0 0 0 0 0 0 0 0 0 0 0 0 0 0 0 0 0 0 0 0 0 0 0 0 0 0 0 0 0 0 0 0 0 0 0 0 0 0 0 0 0 0 0 0 0 0 0 0 0 0 0 0 0 0 0 0 0 0 0 0 0 0 0 0 0 0 0 0 0 0 0 0 0 0 0 0 0 0 0 0 0 0 0 0 0 0 0 0 0 0 0 0 0 0 0 0 0 0 0 0 0 0 0 0 0 0 0 0 0 0 0 0 0 0 0 0 0 0 0 0 0 0 0 0 0 0 0 0 0 0 0 0 0 0 0 0 0 0 0 0 0 0 0 0 0 0 0 0 0 0 0 0 0 0 0 0 0 0 0 0 0 0 0 0 0 0 0 0 0 0 0 0 0 0 0 0 0 0 0 0 0 0 0 0 0 0 0 0 0 0 0 0 0 0 0 0 0 0 0 0 0 0 0 0 0 0 0 0 0 0 0 0 0 0 0 0 0 0 0 0 0 0 0 0 0 0 0 0 0 0 0 0 0 0 0 0 0 0 0 0 0 0 0 0 0 0 0 0 0 0 0 0 0 0 0 0 0 0 0 0 0 0 0 0 0 0 0 0 0 0 0 0 0 0 0 0 0 0 0 0 0 0 0 0 0 0 0 0 0 0 0 0 0 0 0 0 0 0 0 0 0 0 0 0 0 0 0 0 0 0 0 0 0 0 0 0 0 0 0 0 0 0 0 0 0 0 0 0 0 0 0 0 0 0 0 0 0 0 0 0 0 0 0 0 0 0 0 0 0 0 0 0 0 0 0 0 0 0 0 0 0 0 0 0 0 0 0 0 0 0 0 0 0 0 0 0 0 0 0 0 0 0 0 0 0 0 0 0 0 0 0 0 0 0 0 0 0 0 0 0 0 0 0 0 0 0 0 0 0 0 0 0 0 0 0 0 0 0 0 0 0 0 0 0 0 0 0 0 0 0 0 0 0 0 0 0 0 0 0 0 0 0 0 0 0 0 0 0 0 0 0 0 0 0 0 0 0 0 0 0 0 0 0 0 0 0 0 0 0 0 0 0 0 0 0 0 0 0 0 0 0 0 0 0 0 0 0 0 0 0 0 0 0 0 0 0 0 0 0 0 0 0 0 0 0 0 0 0 0 0 0 0 0 0 0 0 0 0 0 0 0 0 0 0 0 0 0 0 0 0 0 0 0 0 0 0 0 0 0 0 0 0 0 0 0 0 0 0 0 0 0 0 0 0 0 0 0 0 0 0 0 0 0 0 0 0 0 0 0 0 0 0 0 0 0 0 0 0 0 0 0 0 0 0 0 0 0 0 0 0 0 0 0 0 0 0 0 0 0 0 0 0 0 0 0 0 0 0 0 0 0 0 0 0 0 0 0 0 0 0 0 0 0 0 0 0 0 0 0 0 0 0 0 0 0 0 0 0 0 0 0 0 0 0 0 0 0 0 0 0 0 0 0 0 0 0 0 0 0 0 0 0 0 0 0 0 0 0 0 0 0 0 0 0 0 0 0 0 0 0 0 0 0 0 0 0 0 0 0 0 0 0 0 0 0 0 0 0 0 0 0 0 0 0 0 0 0 0 0 0 0 0 0 0 0 0 0 0 0 0 0 0 0 0 0 0 0 0 0 0 0 0 0 0 0 0 0 0 0 0 0 0 0 0 0 0 0 0 0 0 0 0 0 0 0 0 0 0 0 0 0 0 0 0 0 0 0 0 0 0 0 0 0 0 0 0 0 0 0 0 0 0 0 0 0 0 0 0 0 0 0 0 0 0 0 0 0 0 0 0 0 0 0 0 0 0 0 0 0 0 0 0 0 0 0 0 0 0 0 0 0 0 0 0 0 0 0 0 0 0 0 0 0 0 0 0 0 0 0 0 0 0 0 0 0 0 0 0 0 0 0 0 0 0 0 0 0 0 0 0 0 0 0 0 0 0 0 0 0 0 0 0 0 0 0 0 0 0 0 0 0 0 0 0 0 0 0 0 0 0 0 0 0 0 0 0 0 0 0 0 0 0 0 0 0 0 0 0 0 0 0 0 0 0 0 0 0 0 0 0 0 0 0 0 0 0 0 0 0 0 0 0 0 0 0 0 0 0 0 0 0 0 0 0 0 0 0 0 0 0 0 0 0 0 0 0 0 0 0 0 0 0 0 0 0 0 0 0 0 0 0 0 0 0 0 0 0 0 0 0 0 0 0 0 0 0 0 0 0 0 0 0 0 0 0 0 0 0 0 0 0 0 0 0 0 0 0 0 0 0 0 0 0 0 0 0 0 0 0 0 0 0 0 0 0 0 0 0 0 0 0 0 0 0 0 0 0 0 0 0 0 0 0 0 0 0 0 0 0 0 0 0 0 0 0 0 0 0 0 0 0 0 0 0 0 0 0 0 0 0 0 0 0 0 0 0 0 0 0 0 0 0 0 0 0 0 0 0 0 0 0 0 0 0 0 0 0 0 0 0 0 0 0 0 0 0 0 0 0 0 0 0 0 0 0 0 0 0 0 0 0 0 0 0 0 0 0 0 0 0 0 0 0 0 0 0 0 0 0 0 0 0 0 0 0 0 0 0 0 0 0 0 0 0 0 0 0 0 0 0 0 0 0 0 0 0 0 0 0 0 0 0 0 0 0 0 0 0 0 0 0 0 0 0 0 0 0 0 0 0 0 0 0 0 0 0 0 0 0 0 0 0 0 0 0 0 0 0 0 0 0 0 0 0 0 0 0 0 0 0 0 0 0 0 0 0 0 0 0 0 0 0 0 0 0 0 0 0 0 0 0 0 0 0 0 0 0 0 0 0 0 0 0 0 0 0 0 0 0 0 0 0 0 0 0 0 0 0 0 0 0 0 0 0 0 0 0 0 0 0 0 0 0 0 0 0 0 0 0 0 0 0 0 0 0 0 0 0 0 0 0 0 0 0 0 0 0 0 0 0 0 0 0 0 0 0 0 0 0 0 0 0 0 0 0 0 0 0 0 0 0 0 0 0 0 0 0 0 0 0 0 0 0 0 0 0 0 0 0 0 0 0 0 0 0 0 0 0 0 0 0 0 0 0 0 0 0 0 0 0 0 0 0 0 0 0 0 0 0 0 0 0 0 0 0 0 0 0 0 0 0 0 0 0 0 0 0 0 0 0 0 0 0 0 0 0 0 0 0 0 0 0 0 0 0 0 0 0 0 0 0 0 0 0 0 0 0 0 0 0 0 0 0 0 0 0 0 0 0 0 0 0 0 0 0 0 0 0 0 0 0 0 0 0 0 0 0 0 0 0 0 0 0 0 0 0 0 0 0 0 0 0 0 0 0 0 0 0 0 0 0 0 0 0 0 0 0 0 0 0 0 0 0 0 0 0 0 0 0 0 0 0 0 0 0 0 0 0 0 0 0 0 0 0 0 0 0 0 0 0 0 0 0 0 0 0 0 0 0 0 0 0 0 0 0 0 0 0 0 0 0 0 0 0 0 0 0 0 0 0 0 0 0 0 0 0 0 0 0 0 0 0 0 0 0 0 0 0 0 0 0 0 0 0 0 0 0 0 0 0 0 0 0 0 0 0 0 0 0 0 0 0 0 0 0 0 0 0 0 0 0 0 0 0 0 0 0 0 0 0 0 0 0 0 0 0 0 0 0 0 0 0 0 0 0 0 0 0 0 0 0 0 0 0 0 0 0 0 0 0 0 0 0 0 0 0 0 0 0 0 0 0 0 0 0 0 0 0 0 0 0 0 0 0 0 0 0 0 0 0 0 0 0 0 0 0 0 0 0 0 0 0 0 0 0 0 0 0 0 0 0 0 0 0 0 0 0 0 0 0 0 0 0 0 0 0 0 0 0 0 0 0 0 0 0 0 0 0 0 0 0 0 0 0 0 0 0 0 0 0 0 0 0 0 0 0 0 0 0 0 0 0 0 0 0 0 0 0 0 0 0 0 0 0 0 0 0 0 0 0 0 0 0 0 0 0 0 0 0 0 0 0 0 0 0 0 0 0 0 0 0 0 0 0 0 0 0 0 0 0 0 0 0 0 0 0 0 0 0 0 0 0 0 0 0 0 0 0 0 0 0 0 0 0 0 0 0 0 0 0 0 0 0 0 0 0 0 0 0 0 0 0 0 0 0 0 0 0 0 0 0 0 0 0 0 0 0 0 0 0 0 0 0 0 0 0 0 0 0 0 0 0 0 0 0 0 0 0 0 0 0 0 0 0 0 0 0 0 0 0 0 0 0 0 0 0 0 0 0 0 0 0 0 0 0 0 0 0 0 0 0 0 0 0 0 0 0 0 0 0 0 0 0 0 0 0 0 0 0 0 0 0 0 0 0 0 0 0 0 0 0 0 0 0 0 0 0 0 0 0 0 0 0 0 0 0 0 0 0 0 0 0 0 0 0 0 0 0 0 0 0 0 0 0 0 0 0 0 0 0 0 0 0 0 0 0 0 0 0 0 0 0 0 0 0 0 0 0 0 0 0 0 0 0 0 0 0 0 0 0 0 0 0 0 0 0 0 0 0 0 0 0 0 0 0 0 0 0 0 0 0 0 0 0 0 0 0 0 0 0 0 0 0 0 0 0 0 0 0 0 0 0 0 0 0 0 0 0 0 0 0 0 0 0 0 0 0 0 0 0 0 0 0 0 0 0 0 0 0 0 0 0 0 0 0 0 0 0 0 0 0 0 0 0 0 0 0 0 0 0 0 0 0 0 0 0 0 0 0 0 0 0 0 0 0 0 0 0 0 0 0 0 0 0 0 0 0 0 0 0 0 0 0 0 0 0 0 0 0 0 0 0 0 0 0 0 0 0 0 0 0 0 0 0 0 0 0 0 0 0 0 0 0 0 0 0 0 0 0 0 0 0 0 0 0 0 0 0 0 0 0 0 0 0 0 0 0 0 0 0 0 0 0 0 0 0 0 0 0 0 0 0 0 0 0 0 0 0 0 0 0 0 0 0 0 0 0 0 0 0 0 0 0 0 0 0 0 0 0 0 0 0 0 0 0 0 0 0 0 0 0 0 0 0 0 0 0 0 0 0 0 0 0 0 0 0 0 0 0 0 0 0 0 0 0 0 0 0 0 0 0 0 0 0 0 0 0 0 0 0 0 0 0 0 0 0 0 0 0 0 0 0 0 0 0 0 0 0 0 0 0 0 0 0 0 0 0 0 0 0 0 0 0 0 0 0 0 0 0 0 0 0 0 0 0 0 0 0 0 0 0 0 0 0 0 0 0 0 0 0 0 0 0 0 0 0 0 0 0 0 0 0 0 0 0 0 0 0 0 0 0 0 0 0 0 0 0 0 0 0 0 0 0 0 0 0 0 0 0 0 0 0 0 0 0 0 0 0 0 0 0 0 0 0 0 0 0 0 0 0 0 0 0 0 0 0 0 0 0 0 0 0 0 0 0 0 0 0 0 0 0 0 0 0 0 0 0 0 0 0 0 0 0 0 0 0 0 0 0 0 0 0 0 0 0 0 0 0 0 0 0 0 0 0 0 0 0 0 0 0 0 0 0 0 0 0 0 0 0 0 0 0 0 0 0 0 0 0 0 0 0 0 0 0 0 0 0 0 0 0 0 0 0 0 0 0 0 0 0 0 0 0 0 0 0 0 0 0 0 0 0 0 0 0 0 0 0 0 0 0 0 0 0 0 0 0 0 0 0 0 0 0 0 0 0 0 0 0 0 0 0 0 0 0 0 0 0 0 0 0 0 0 0 0 0 0 0 0 0 0 0 0 0 0 0 0 0 0 0 0 0 0 0 0 0 0 0 0 0 0 0 0 0 0 0 0 0 0 0 0 0 0 0 0 0 0 0 0 0 0 0 0 0 0 0 0 0 0 0 0 0 0 0 0 0 0 0 0 0 0 0 0 0 0 0 0 0 0 0 0 0 0 0 0 0 0 0 0 0 0 0 0 0 0 0 0 0 0 0 0 0 0 0 0 0 0 0 0 0 0 0 0 0 0 0 0 0 0 0 0 0 0 0 0 0 0 0 0 0 0 0 0 0 0 0 0 0 0 0 0 0 0 0 0 0 0 0 0 0 0 0 0 0 0 0 0 0 0 0 0 0 0 0 0 0 0 0 0 0 0 0 0 0 0 0 0 0 0 0 0 0 0 0 0 0 0 0 0 0 0 0 0 0 0 0 0 0 0 0 0 0 0 0 0 0 0 0 0 0 0 0 0 0 0 0 0 0 0 0 0 0 0 0 0 0 0 0 0 0 0 0 0 0 0 0 0 0 0 0 0 0 0 0 0 0 0 0 0 0 0 0 0 0 0 0 0 0 0 0 0 0 0 0 0 0 0 0 0 0 0 0 0 0 0 0 0 0 0 0 0 0 0 0 0 0 0 0 0 0 0 0 0 0 0 0 0 0 0 0 0 0 0 0 0 0 0 0 0 0 0 0 0 0 0 0 0 0 0 0 0 0 0 0 0 0 0 0 0 0 0 0 0 0 0 0 0 0 0 0 0 0 0 0 0 0 0 0 0 0 0 0 0 0 0 0 0 0 0 0 0 0 0 0 0 0 0 0 0 0 0 0 0 0 0 0 0 0 0 0 0 0 0 0 0 0 0 0 0 0 0 0 0 0 0 0 0 0 0 0 0 0 0 0 0 0 0 0 0 0 0 0 0 0 0 0 0 0 0 0 0 0 0 0 0 0 0 0 0 0 0 0 0 0 0 0 0 0 0 0 0 0 0 0 0 0 0 0 0 0 0 0 0 0 0 0 0 0 0 0 0 0 0 0 0 0 0 0 0 0 0 0 0 0 0 0 0 0 0 0 0 0 0 0 0 0 0 0 0 0 0 0 0 0 0 0 0 0 0 0 0 0 0 0 0 0 0 0 0 0 0 0 0 0 0 0 0 0 0 0 0 0 0 0 0 0 0 0 0 0 0 0 0 0 0 0 0 0 0 0 0 0 0 0 0 0 0 0 0 0 0 0 0 0 0 0 0 0 0 0 0 0 0 0 0 0 0 0 0 0 0 0 0 0 0 0 0 0 0 0 0 0 0 0 0 0 0 0 0 0 0 0 0 0 0 0 0 0 0 0 0 0 0 0 0 0 0 0 0 0 0 0 0 0 0 0 0 0 0 0 0 0 0 0 0 0 0 0 0 0 0 0 0 0 0 0 0 0 0 0 0 0 0 0 0 0 0 0 0 0 0 0 0 0 0 0 0 0 0 0 0 0 0 0 0 0 0 0 0 0 0 0 0 0 0 0 0 0 0 0 0 0 0 0 0 0 0 0 0 0 0 0 0 0 0 0 0 0 0 0 0 0 0 0 0 0 0 0 0 0 0 0 0 0 0 0 0 0 0 0 0 0 0 0 0 0 0 0 0 0 0 0 0 0 0 0 0 0 0 0 0 0 0 0 0 0 0 0 0 0 0 0 0 0 0 0 0 0 0 0 0 0 0 0 0 0 0 0 0 0 0 0 0 0 0 0 0 0 0 0 0 0 0 0 0 0 0 0 0 0 0 0 0 0 0 0 0 0 0 0 0 0 0 0 0 0 0 0 0 0 0 0 0 0 0 0 0 0 0 0 0 0 0 0 0 0 0 0 0 0 0 0 0 0 0 0 0 0 0 0 0 0 0 0 0 0 0 0 0 0 0 0 0 0 0 0 0 0 0 0 0 0 0 0 0 0 0 0 0 0 0 0 0 0 0 0 0 0 0 0 0 0 0 0 0 0 0 0 0 0 0 0 0 0 0 0 0 0 0 0 0 0 0 0 0 0 0 0 0 0 0 0 0 0 0 0 0 0 0 0 0 0 0 0 0 0 0 0 0 0 0 0 0 0 0 0 0 0 0 0 0 0 0 0 0 0 0 0 0 0 0 0 0 0 0 0 0 0 0 0 0 0 0 0 0 0 0 0 0 0 0 0 0 0 0 0 0 0 0 0 0 0 0 0 0 0 0 0 0 0 0 0 0 0 0 0 0 0 0 0 0 0 0 0 0 0 0 0 0 0 0 0 0 0 0 0 0 0 0 0 0 0 0 </DataArray>