<?xml version="1.0"?>
<VTKFile type="UnstructuredGrid" version="2.2">
  <UnstructuredGrid>
    <Piece NumberOfPoints="10201" NumberOfCells="5000">
      <Points>
        <DataArray type="Float64" NumberOfComponents="3" format="ascii">0.07840000000000001 -6.031838600413045e-20 0 0.08000000000000002 -6.031838600413045e-20 0 0.08000000000000002 0.002800000000000001 0 0.08 0.0014 0 0.07919999999999999 0.0014 0 0.07920000000000001 0 0 0.07840000000000001 0.002800000000000001 0 0.07920000000000001 0.0028 0 0.0784 0.0014 0 0.07680000000000002 -6.031838600413045e-20 0 0.0776 0.0014 0 0.0776 0 0 0.08000000000000002 0.005600000000000002 0 0.08 0.004200000000000001 0 0.07919999999999999 0.004200000000000001 0 0.07680000000000002 0.002800000000000001 0 0.0776 0.0028 0 0.07680000000000001 0.0014 0 0.07840000000000001 0.005600000000000002 0 0.07920000000000001 0.005600000000000001 0 0.0784 0.004200000000000001 0 0.07520000000000002 -6.031838600413045e-20 0 0.07600000000000001 0.0014 0 0.07600000000000001 0 0 0.0776 0.004200000000000001 0 0.08000000000000002 0.008400000000000003 0 0.08 0.007000000000000001 0 0.07919999999999999 0.007000000000000001 0 0.07520000000000002 0.002800000000000001 0 0.07600000000000001 0.0028 0 0.0752 0.0014 0 0.07680000000000002 0.005600000000000002 0 0.0776 0.005600000000000001 0 0.07680000000000001 0.004200000000000001 0 0.07840000000000001 0.008400000000000003 0 0.07920000000000001 0.008400000000000001 0 0.0784 0.007000000000000001 0 0.07360000000000001 -6.031838600413045e-20 0 0.07439999999999999 0.0014 0 0.07440000000000001 0 0 0.07600000000000001 0.004200000000000001 0 0.0776 0.007000000000000001 0 0.08000000000000002 0.0112 0 0.08 0.009800000000000001 0 0.07919999999999999 0.009800000000000001 0 0.07360000000000001 0.002800000000000001 0 0.07440000000000001 0.0028 0 0.0736 0.0014 0 0.07520000000000002 0.005600000000000002 0 0.07600000000000001 0.005600000000000001 0 0.0752 0.004200000000000001 0 0.07680000000000002 0.008400000000000003 0 0.0776 0.008400000000000001 0 0.07680000000000001 0.007000000000000001 0 0.07840000000000001 0.0112 0 0.07920000000000001 0.0112 0 0.0784 0.009800000000000001 0 0.07200000000000002 -6.031838600413045e-20 0 0.0728 0.0014 0 0.0728 0 0 0.07439999999999999 0.004200000000000001 0 0.07600000000000001 0.007000000000000001 0 0.0776 0.009800000000000001 0 0.08000000000000002 0.014 0 0.08 0.0126 0 0.07919999999999999 0.0126 0 0.07200000000000002 0.002800000000000001 0 0.0728 0.0028 0 0.07200000000000001 0.0014 0 0.07360000000000001 0.005600000000000002 0 0.07440000000000001 0.005600000000000001 0 0.0736 0.004200000000000001 0 0.07520000000000002 0.008400000000000003 0 0.07600000000000001 0.008400000000000001 0 0.0752 0.007000000000000001 0 0.07680000000000002 0.0112 0 0.0776 0.0112 0 0.07680000000000001 0.009800000000000001 0 0.07840000000000001 0.014 0 0.07920000000000001 0.014 0 0.0784 0.0126 0 0.07040000000000002 -6.031838600413045e-20 0 0.07120000000000001 0.0014 0 0.07120000000000001 0 0 0.0728 0.004200000000000001 0 0.07439999999999999 0.007000000000000001 0 0.07600000000000001 0.009800000000000001 0 0.0776 0.0126 0 0.08000000000000002 0.01680000000000001 0 0.08 0.0154 0 0.07919999999999999 0.0154 0 0.07040000000000002 0.002800000000000001 0 0.07120000000000001 0.0028 0 0.0704 0.0014 0 0.07200000000000002 0.005600000000000002 0 0.0728 0.005600000000000001 0 0.07200000000000001 0.004200000000000001 0 0.07360000000000001 0.008400000000000003 0 0.07440000000000001 0.008400000000000001 0 0.0736 0.007000000000000001 0 0.07520000000000002 0.0112 0 0.07600000000000001 0.0112 0 0.0752 0.009800000000000001 0 0.07680000000000002 0.014 0 0.0776 0.014 0 0.07680000000000001 0.0126 0 0.07840000000000001 0.01680000000000001 0 0.07920000000000001 0.0168 0 0.0784 0.0154 0 0.06880000000000001 -6.031838600413045e-20 0 0.0696 0.0014 0 0.06960000000000001 0 0 0.07120000000000001 0.004200000000000001 0 0.0728 0.007000000000000001 0 0.07439999999999999 0.009800000000000001 0 0.07600000000000001 0.0126 0 0.0776 0.0154 0 0.08000000000000002 0.01960000000000001 0 0.08 0.0182 0 0.07919999999999999 0.0182 0 0.06880000000000001 0.002800000000000001 0 0.06960000000000001 0.0028 0 0.0688 0.0014 0 0.07040000000000002 0.005600000000000002 0 0.07120000000000001 0.005600000000000001 0 0.0704 0.004200000000000001 0 0.07200000000000002 0.008400000000000003 0 0.0728 0.008400000000000001 0 0.07200000000000001 0.007000000000000001 0 0.07360000000000001 0.0112 0 0.07440000000000001 0.0112 0 0.0736 0.009800000000000001 0 0.07520000000000002 0.014 0 0.07600000000000001 0.014 0 0.0752 0.0126 0 0.07680000000000002 0.01680000000000001 0 0.0776 0.0168 0 0.07680000000000001 0.0154 0 0.07840000000000001 0.01960000000000001 0 0.07920000000000001 0.01960000000000001 0 0.0784 0.0182 0 0.06720000000000002 -6.031838600413045e-20 0 0.068 0.0014 0 0.068 0 0 0.0696 0.004200000000000001 0 0.07120000000000001 0.007000000000000001 0 0.0728 0.009800000000000001 0 0.07439999999999999 0.0126 0 0.07600000000000001 0.0154 0 0.0776 0.0182 0 0.08000000000000002 0.02240000000000001 0 0.08 0.021 0 0.07919999999999999 0.021 0 0.06720000000000002 0.002800000000000001 0 0.068 0.0028 0 0.06720000000000001 0.0014 0 0.06880000000000001 0.005600000000000002 0 0.06960000000000001 0.005600000000000001 0 0.0688 0.004200000000000001 0 0.07040000000000002 0.008400000000000003 0 0.07120000000000001 0.008400000000000001 0 0.0704 0.007000000000000001 0 0.07200000000000002 0.0112 0 0.0728 0.0112 0 0.07200000000000001 0.009800000000000001 0 0.07360000000000001 0.014 0 0.07440000000000001 0.014 0 0.0736 0.0126 0 0.07520000000000002 0.01680000000000001 0 0.07600000000000001 0.0168 0 0.0752 0.0154 0 0.07680000000000002 0.01960000000000001 0 0.0776 0.01960000000000001 0 0.07680000000000001 0.0182 0 0.07840000000000001 0.02240000000000001 0 0.07920000000000001 0.0224 0 0.0784 0.021 0 0.06560000000000002 -6.031838600413045e-20 0 0.06640000000000001 0.0014 0 0.06640000000000001 0 0 0.068 0.004200000000000001 0 0.0696 0.007000000000000001 0 0.07120000000000001 0.009800000000000001 0 0.0728 0.0126 0 0.07439999999999999 0.0154 0 0.07600000000000001 0.0182 0 0.0776 0.021 0 0.08000000000000002 0.02520000000000001 0 0.08 0.0238 0 0.07919999999999999 0.0238 0 0.06560000000000002 0.002800000000000001 0 0.06640000000000001 0.0028 0 0.06560000000000001 0.0014 0 0.06720000000000002 0.005600000000000002 0 0.068 0.005600000000000001 0 0.06720000000000001 0.004200000000000001 0 0.06880000000000001 0.008400000000000003 0 0.06960000000000001 0.008400000000000001 0 0.0688 0.007000000000000001 0 0.07040000000000002 0.0112 0 0.07120000000000001 0.0112 0 0.0704 0.009800000000000001 0 0.07200000000000002 0.014 0 0.0728 0.014 0 0.07200000000000001 0.0126 0 0.07360000000000001 0.01680000000000001 0 0.07440000000000001 0.0168 0 0.0736 0.0154 0 0.07520000000000002 0.01960000000000001 0 0.07600000000000001 0.01960000000000001 0 0.0752 0.0182 0 0.07680000000000002 0.02240000000000001 0 0.0776 0.0224 0 0.07680000000000001 0.021 0 0.07840000000000001 0.02520000000000001 0 0.07920000000000001 0.02520000000000001 0 0.0784 0.0238 0 0.064 -6.031838600413045e-20 0 0.0648 0.0014 0 0.06480000000000001 0 0 0.06640000000000001 0.004200000000000001 0 0.068 0.007000000000000001 0 0.0696 0.009800000000000001 0 0.07120000000000001 0.0126 0 0.0728 0.0154 0 0.07439999999999999 0.0182 0 0.07600000000000001 0.021 0 0.0776 0.0238 0 0.08000000000000002 0.02800000000000001 0 0.08 0.02660000000000001 0 0.07919999999999999 0.02660000000000001 0 0.064 0.002800000000000001 0 0.06480000000000001 0.0028 0 0.064 0.0014 0 0.06560000000000002 0.005600000000000002 0 0.06640000000000001 0.005600000000000001 0 0.06560000000000001 0.004200000000000001 0 0.06720000000000002 0.008400000000000003 0 0.068 0.008400000000000001 0 0.06720000000000001 0.007000000000000001 0 0.06880000000000001 0.0112 0 0.06960000000000001 0.0112 0 0.0688 0.009800000000000001 0 0.07040000000000002 0.014 0 0.07120000000000001 0.014 0 0.0704 0.0126 0 0.07200000000000002 0.01680000000000001 0 0.0728 0.0168 0 0.07200000000000001 0.0154 0 0.07360000000000001 0.01960000000000001 0 0.07440000000000001 0.01960000000000001 0 0.0736 0.0182 0 0.07520000000000002 0.02240000000000001 0 0.07600000000000001 0.0224 0 0.0752 0.021 0 0.07680000000000002 0.02520000000000001 0 0.0776 0.02520000000000001 0 0.07680000000000001 0.0238 0 0.07840000000000001 0.02800000000000001 0 0.07920000000000001 0.02800000000000001 0 0.0784 0.02660000000000001 0 0.06240000000000001 -6.031838600413045e-20 0 0.06320000000000001 0.0014 0 0.06320000000000001 0 0 0.0648 0.004200000000000001 0 0.06640000000000001 0.007000000000000001 0 0.068 0.009800000000000001 0 0.0696 0.0126 0 0.07120000000000001 0.0154 0 0.0728 0.0182 0 0.07439999999999999 0.021 0 0.07600000000000001 0.0238 0 0.0776 0.02660000000000001 0 0.08000000000000002 0.03080000000000001 0 0.08 0.0294 0 0.07919999999999999 0.0294 0 0.06240000000000001 0.002800000000000001 0 0.06320000000000001 0.0028 0 0.0624 0.0014 0 0.064 0.005600000000000002 0 0.06480000000000001 0.005600000000000001 0 0.064 0.004200000000000001 0 0.06560000000000002 0.008400000000000003 0 0.06640000000000001 0.008400000000000001 0 0.06560000000000001 0.007000000000000001 0 0.06720000000000002 0.0112 0 0.068 0.0112 0 0.06720000000000001 0.009800000000000001 0 0.06880000000000001 0.014 0 0.06960000000000001 0.014 0 0.0688 0.0126 0 0.07040000000000002 0.01680000000000001 0 0.07120000000000001 0.0168 0 0.0704 0.0154 0 0.07200000000000002 0.01960000000000001 0 0.0728 0.01960000000000001 0 0.07200000000000001 0.0182 0 0.07360000000000001 0.02240000000000001 0 0.07440000000000001 0.0224 0 0.0736 0.021 0 0.07520000000000002 0.02520000000000001 0 0.07600000000000001 0.02520000000000001 0 0.0752 0.0238 0 0.07680000000000002 0.02800000000000001 0 0.0776 0.02800000000000001 0 0.07680000000000001 0.02660000000000001 0 0.07840000000000001 0.03080000000000001 0 0.07920000000000001 0.03080000000000001 0 0.0784 0.0294 0 0.06080000000000001 -6.031838600413045e-20 0 0.
[...]
      <CellData>
        <DataArray type="UInt8" Name="vtkGhostType" format="ascii" RangeMin="0" RangeMax="1">0 0 0 0 0 0 0 0 0 0 0 0 0 0 0 0 0 0 0 0 0 0 0 0 0 0 0 0 0 0 0 0 0 0 0 0 0 0 0 0 0 0 0 0 0 0 0 0 0 0 0 0 0 0 0 0 0 0 0 0 0 0 0 0 0 0 0 0 0 0 0 0 0 0 0 0 0 0 0 0 0 0 0 0 0 0 0 0 0 0 0 0 0 0 0 0 0 0 0 0 0 0 0 0 0 0 0 0 0 0 0 0 0 0 0 0 0 0 0 0 0 0 0 0 0 0 0 0 0 0 0 0 0 0 0 0 0 0 0 0 0 0 0 0 0 0 0 0 0 0 0 0 0 0 0 0 0 0 0 0 0 0 0 0 0 0 0 0 0 0 0 0 0 0 0 0 0 0 0 0 0 0 0 0 0 0 0 0 0 0 0 0 0 0 0 0 0 0 0 0 0 0 0 0 0 0 0 0 0 0 0 0 0 0 0 0 0 0 0 0 0 0 0 0 0 0 0 0 0 0 0 0 0 0 0 0 0 0 0 0 0 0 0 0 0 0 0 0 0 0 0 0 0 0 0 0 0 0 0 0 0 0 0 0 0 0 0 0 0 0 0 0 0 0 0 0 0 0 0 0 0 0 0 0 0 0 0 0 0 0 0 0 0 0 0 0 0 0 0 0 0 0 0 0 0 0 0 0 0 0 0 0 0 0 0 0 0 0 0 0 0 0 0 0 0 0 0 0 0 0 0 0 0 0 0 0 0 0 0 0 0 0 0 0 0 0 0 0 0 0 0 0 0 0 0 0 0 0 0 0 0 0 0 0 0 0 0 0 0 0 0 0 0 0 0 0 0 0 0 0 0 0 0 0 0 0 0 0 0 0 0 0 0 0 0 0 0 0 0 0 0 0 0 0 0 0 0 0 0 0 0 0 0 0 0 0 0 0 0 0 0 0 0 0 0 0 0 0 0 0 0 0 0 0 0 0 0 0 0 0 0 0 0 0 0 0 0 0 0 0 0 0 0 0 0 0 0 0 0 0 0 0 0 0 0 0 0 0 0 0 0 0 0 0 0 0 0 0 0 0 0 0 0 0 0 0 0 0 0 0 0 0 0 0 0 0 0 0 0 0 0 0 0 0 0 0 0 0 0 0 0 0 0 0 0 0 0 0 0 0 0 0 0 0 0 0 0 0 0 0 0 0 0 0 0 0 0 0 0 0 0 0 0 0 0 0 0 0 0 0 0 0 0 0 0 0 0 0 0 0 0 0 0 0 0 0 0 0 0 0 0 0 0 0 0 0 0 0 0 0 0 0 0 0 0 0 0 0 0 0 0 0 0 0 0 0 0 0 0 0 0 0 0 0 0 0 0 0 0 0 0 0 0 0 0 0 0 0 0 0 0 0 0 0 0 0 0 0 0 0 0 0 0 0 0 0 0 0 0 0 0 0 0 0 0 0 0 0 0 0 0 0 0 0 0 0 0 0 0 0 0 0 0 0 0 0 0 0 0 0 0 0 0 0 0 0 0 0 0 0 0 0 0 0 0 0 0 0 0 0 0 0 0 0 0 0 0 0 0 0 0 0 0 0 0 0 0 0 0 0 0 0 0 0 0 0 0 0 0 0 0 0 0 0 0 0 0 0 0 0 0 0 0 0 0 0 0 0 0 0 0 0 0 0 0 0 0 0 0 0 0 0 0 0 0 0 0 0 0 0 0 0 0 0 0 0 0 0 0 0 0 0 0 0 0 0 0 0 0 0 0 0 0 0 0 0 0 0 0 0 0 0 0 0 0 0 0 0 0 0 0 0 0 0 0 0 0 0 0 0 0 0 0 0 0 0 0 0 0 0 0 0 0 0 0 0 0 0 0 0 0 0 0 0 0 0 0 0 0 0 0 0 0 0 0 0 0 0 0 0 0 0 0 0 0 0 0 0 0 0 0 0 0 0 0 0 0 0 0 0 0 0 0 0 0 0 0 0 0 0 0 0 0 0 0 0 0 0 0 0 0 0 0 0 0 0 0 0 0 0 0 0 0 0 0 0 0 0 0 0 0 0 0 0 0 0 0 0 0 0 0 0 0 0 0 0 0 0 0 0 0 0 0 0 0 0 0 0 0 0 0 0 0 0 0 0 0 0 0 0 0 0 0 0 0 0 0 0 0 0 0 0 0 0 0 0 0 0 0 0 0 0 0 0 0 0 0 0 0 0 0 0 0 0 0 0 0 0 0 0 0 0 0 0 0 0 0 0 0 0 0 0 0 0 0 0 0 0 0 0 0 0 0 0 0 0 0 0 0 0 0 0 0 0 0 0 0 0 0 0 0 0 0 0 0 0 0 0 0 0 0 0 0 0 0 0 0 0 0 0 0 0 0 0 0 0 0 0 0 0 0 0 0 0 0 0 0 0 0 0 0 0 0 0 0 0 0 0 0 0 0 0 0 0 0 0 0 0 0 0 0 0 0 0 0 0 0 0 0 0 0 0 0 0 0 0 0 0 0 0 0 0 0 0 0 0 0 0 0 0 0 0 0 0 0 0 0 0 0 0 0 0 0 0 0 0 0 0 0 0 0 0 0 0 0 0 0 0 0 0 0 0 0 0 0 0 0 0 0 0 0 0 0 0 0 0 0 0 0 0 0 0 0 0 0 0 0 0 0 0 0 0 0 0 0 0 0 0 0 0 0 0 0 0 0 0 0 0 0 0 0 0 0 0 0 0 0 0 0 0 0 0 0 0 0 0 0 0 0 0 0 0 0 0 0 0 0 0 0 0 0 0 0 0 0 0 0 0 0 0 0 0 0 0 0 0 0 0 0 0 0 0 0 0 0 0 0 0 0 0 0 0 0 0 0 0 0 0 0 0 0 0 0 0 0 0 0 0 0 0 0 0 0 0 0 0 0 0 0 0 0 0 0 0 0 0 0 0 0 0 0 0 0 0 0 0 0 0 0 0 0 0 0 0 0 0 0 0 0 0 0 0 0 0 0 0 0 0 0 0 0 0 0 0 0 0 0 0 0 0 0 0 0 0 0 0 0 0 0 0 0 0 0 0 0 0 0 0 0 0 0 0 0 0 0 0 0 0 0 0 0 0 0 0 0 0 0 0 0 0 0 0 0 0 0 0 0 0 0 0 0 0 0 0 0 0 0 0 0 0 0 0 0 0 0 0 0 0 0 0 0 0 0 0 0 0 0 0 0 0 0 0 0 0 0 0 0 0 0 0 0 0 0 0 0 0 0 0 0 0 0 0 0 0 0 0 0 0 0 0 0 0 0 0 0 0 0 0 0 0 0 0 0 0 0 0 0 0 0 0 0 0 0 0 0 0 0 0 0 0 0 0 0 0 0 0 0 0 0 0 0 0 0 0 0 0 0 0 0 0 0 0 0 0 0 0 0 0 0 0 0 0 0 0 0 0 0 0 0 0 0 0 0 0 0 0 0 0 0 0 0 0 0 0 0 0 0 0 0 0 0 0 0 0 0 0 0 0 0 0 0 0 0 0 0 0 0 0 0 0 0 0 0 0 0 0 0 0 0 0 0 0 0 0 0 0 0 0 0 0 0 0 0 0 0 0 0 0 0 0 0 0 0 0 0 0 0 0 0 0 0 0 0 0 0 0 0 0 0 0 0 0 0 0 0 0 0 0 0 0 0 0 0 0 0 0 0 0 0 0 0 0 0 0 0 0 0 0 0 0 0 0 0 0 0 0 0 0 0 0 0 0 0 0 0 0 0 0 0 0 0 0 0 0 0 0 0 0 0 0 0 0 0 0 0 0 0 0 0 0 0 0 0 0 0 0 0 0 0 0 0 0 0 0 0 0 0 0 0 0 0 0 0 0 0 0 0 0 0 0 0 0 0 0 0 0 0 0 0 0 0 0 0 0 0 0 0 0 0 0 0 0 0 0 0 0 0 0 0 0 0 0 0 0 0 0 0 0 0 0 0 0 0 0 0 0 0 0 0 0 0 0 0 0 0 0 0 0 0 0 0 0 0 0 0 0 0 0 0 0 0 0 0 0 0 0 0 0 0 0 0 0 0 0 0 0 0 0 0 0 0 0 0 0 0 0 0 0 0 0 0 0 0 0 0 0 0 0 0 0 0 0 0 0 0 0 0 0 0 0 0 0 0 0 0 0 0 0 0 0 0 0 0 0 0 0 0 0 0 0 0 0 0 0 0 0 0 0 0 0 0 0 0 0 0 0 0 0 0 0 0 0 0 0 0 0 0 0 0 0 0 0 0 0 0 0 0 0 0 0 0 0 0 0 0 0 0 0 0 0 0 0 0 0 0 0 0 0 0 0 0 0 0 0 0 0 0 0 0 0 0 0 0 0 0 0 0 0 0 0 0 0 0 0 0 0 0 0 0 0 0 0 0 0 0 0 0 0 0 0 0 0 0 0 0 0 0 0 0 0 0 0 0 0 0 0 0 0 0 0 0 0 0 0 0 0 0 0 0 0 0 0 0 0 0 0 0 0 0 0 0 0 0 0 0 0 0 0 0 0 0 0 0 0 0 0 0 0 0 0 0 0 0 0 0 0 0 0 0 0 0 0 0 0 0 0 0 0 0 0 0 0 0 0 0 0 0 0 0 0 0 0 0 0 0 0 0 0 0 0 0 0 0 0 0 0 0 0 0 0 0 0 0 0 0 0 0 0 0 0 0 0 0 0 0 0 0 0 0 0 0 0 0 0 0 0 0 0 0 0 0 0 0 0 0 0 0 0 0 0 0 0 0 0 0 0 0 0 0 0 0 0 0 0 0 0 0 0 0 0 0 0 0 0 0 0 0 0 0 0 0 0 0 0 0 0 0 0 0 0 0 0 0 0 0 0 0 0 0 0 0 0 0 0 0 0 0 0 0 0 0 0 0 0 0 0 0 0 0 0 0 0 0 0 0 0 0 0 0 0 0 0 0 0 0 0 0 0 0 0 0 0 0 0 0 0 0 0 0 0 0 0 0 0 0 0 0 0 0 0 0 0 0 0 0 0 0 0 0 0 0 0 0 0 0 0 0 0 0 0 0 0 0 0 0 0 0 0 0 0 0 0 0 0 0 0 0 0 0 0 0 0 0 0 0 0 0 0 0 0 0 0 0 0 0 0 0 0 0 0 0 0 0 0 0 0 0 0 0 0 0 0 0 0 0 0 0 0 0 0 0 0 0 0 0 0 0 0 0 0 0 0 0 0 0 0 0 0 0 0 0 0 0 0 0 0 0 0 0 0 0 0 0 0 0 0 0 0 0 0 0 0 0 0 0 0 0 0 0 0 0 0 0 0 0 0 0 0 0 0 0 0 0 0 0 0 0 0 0 0 0 0 0 0 0 0 0 0 0 0 0 0 0 0 0 0 0 0 0 0 0 0 0 0 0 0 0 0 0 0 0 0 0 0 0 0 0 0 0 0 0 0 0 0 0 0 0 0 0 0 0 0 0 0 0 0 0 0 0 0 0 0 0 0 0 0 0 0 0 0 0 0 0 0 0 0 0 0 0 0 0 0 0 0 0 0 0 0 0 0 0 0 0 0 0 0 0 0 0 0 0 0 0 0 0 0 0 0 0 0 0 0 0 0 0 0 0 0 0 0 0 0 0 0 0 0 0 0 0 0 0 0 0 0 0 0 0 0 0 0 0 0 0 0 0 0 0 0 0 0 0 0 0 0 0 0 0 0 0 0 0 0 0 0 0 0 0 0 0 0 0 0 0 0 0 0 0 0 0 0 0 0 0 0 0 0 0 0 0 0 0 0 0 0 0 0 0 0 0 0 0 0 0 0 0 0 0 0 0 0 0 0 0 0 0 0 0 0 0 0 0 0 0 0 0 0 0 0 0 0 0 0 0 0 0 0 0 0 0 0 0 0 0 0 0 0 0 0 0 0 0 0 0 0 0 0 0 0 0 0 0 0 0 0 0 0 0 0 0 0 0 0 0 0 0 0 0 0 0 0 0 0 0 0 0 0 0 0 0 0 0 0 0 0 0 0 0 0 0 0 0 0 0 0 0 0 0 0 0 0 0 0 0 0 0 0 0 0 0 0 0 0 0 0 0 0 0 0 0 0 0 0 0 0 0 0 0 0 0 0 0 0 0 0 0 0 0 0 0 0 0 0 0 0 0 0 0 0 0 0 0 0 0 0 0 0 0 0 0 0 0 0 0 0 0 0 0 0 0 0 0 0 0 0 0 0 0 0 0 0 0 0 0 0 0 0 0 0 0 0 0 0 0 0 0 0 0 0 0 0 0 0 0 0 0 0 0 0 0 0 0 0 0 0 0 0 0 0 0 0 0 0 0 0 0 0 0 0 0 0 0 0 0 0 0 0 0 0 0 0 0 0 0 0 0 0 0 0 0 0 0 0 0 0 0 0 0 0 0 0 0 0 0 0 0 0 0 0 0 0 0 0 0 0 0 0 0 0 0 0 0 0 0 0 0 0 0 0 0 0 0 0 0 0 0 0 0 0 0 0 0 0 0 0 0 0 0 0 0 0 0 0 0 0 0 0 0 0 0 0 0 0 0 0 0 0 0 0 0 0 0 0 0 0 0 0 0 0 0 0 0 0 0 0 0 0 0 0 0 0 0 0 0 0 0 0 0 0 0 0 0 0 0 0 0 0 0 0 0 0 0 0 0 0 0 0 0 0 0 0 0 0 0 0 0 0 0 0 0 0 0 0 0 0 0 0 0 0 0 0 0 0 0 0 0 0 0 0 0 0 0 0 0 0 0 0 0 0 0 0 0 0 0 0 0 0 0 0 0 0 0 0 0 0 0 0 0 0 0 0 0 0 0 0 0 0 0 0 0 0 0 0 0 0 0 0 0 0 0 0 0 0 0 0 0 0 0 0 0 0 0 0 0 0 0 0 0 0 0 0 0 0 0 0 0 0 0 0 0 0 0 0 0 0 0 0 0 0 0 0 0 0 0 0 0 0 0 0 0 0 0 0 0 0 0 0 0 0 0 0 0 0 0 0 0 0 0 0 0 0 0 0 0 0 0 0 0 0 0 0 0 0 0 0 0 0 0 0 0 0 0 0 0 0 0 0 0 0 0 0 0 0 0 0 0 0 0 0 0 0 0 0 0 0 0 0 0 0 0 0 0 0 0 0 0 0 0 0 0 0 0 0 0 0 0 0 0 0 0 0 0 0 0 0 0 0 0 0 0 0 0 0 0 0 0 0 0 0 0 0 0 0 0 0 0 0 0 0 0 0 0 0 0 0 0 0 0 0 0 0 0 0 0 0 0 0 0 0 0 0 0 0 0 0 0 0 0 0 0 0 0 0 0 0 0 0 0 0 0 0 0 0 0 0 0 0 0 0 0 0 0 0 0 0 0 0 0 0 0 0 0 0 0 0 0 0 0 0 0 0 0 0 0 0 0 0 0 0 0 0 0 0 0 0 0 0 0 0 0 0 0 0 0 0 0 0 0 0 0 0 0 0 0 0 0 0 0 0 0 0 0 0 0 0 0 0 0 0 0 0 0 0 0 0 0 0 0 0 0 0 0 0 0 0 0 0 0 0 0 0 0 0 0 0 0 0 0 0 0 0 0 0 0 0 0 0 0 0 0 0 0 0 0 0 0 0 0 0 0 0 0 0 0 0 0 0 0 0 0 0 0 0 0 0 0 0 0 0 0 0 0 0 0 0 0 0 0 0 0 0 0 0 0 0 0 0 0 0 0 0 0 0 0 0 0 0 0 0 0 0 0 0 0 0 0 0 0 0 0 0 0 0 0 0 0 0 0 0 0 0 0 0 0 0 0 0 0 0 0 0 0 0 0 0 0 0 0 0 0 0 0 0 0 0 0 0 0 0 0 0 0 0 0 0 0 0 0 0 0 0 0 0 0 0 0 0 0 0 0 0 0 0 0 0 0 0 0 0 0 0 0 0 0 0 0 0 0 0 0 0 0 0 0 0 0 0 0 0 0 0 0 0 0 0 0 0 0 0 0 0 0 0 0 0 0 0 0 0 0 0 0 0 0 0 0 0 0 0 0 0 0 0 0 0 0 0 0 0 0 0 0 0 0 0 0 0 0 0 0 0 0 0 0 0 0 0 0 0 0 0 0 0 0 0 0 0 0 0 0 0 0 0 0 0 0 0 0 0 0 0 0 0 0 0 0 0 0 0 0 0 0 0 0 0 0 0 0 0 0 0 0 0 0 0 0 0 0 0 0 0 0 0 0 0 0 0 0 0 0 0 0 0 0 0 0 0 0 0 0 0 0 0 0 0 0 0 0 0 0 0 0 0 0 0 0 0 0 0 0 0 0 0 0 0 0 0 0 0 0 0 0 0 0 0 0 0 0 0 0 0 0 0 0 0 0 0 0 0 0 0 0 0 0 0 0 0 0 0 0 0 0 0 0 0 0 0 0 0 0 0 0 0 0 0 0 0 0 0 0 0 0 0 0 0 0 0 0 0 0 0 0 0 0 0 0 0 0 0 0 0 0 0 0 0 0 0 0 0 0 0 0 0 0 0 0 0 0 0 0 0 0 0 0 0 0 0 0 0 0 0 0 0 0 0 0 0 0 0 0 0 0 0 0 0 0 0 0 0 0 0 0 0 0 0 0 0 0 0 0 0 0 0 0 0 0 0 0 0 0 0 0 0 0 0 0 0 0 0 0 0 0 0 0 0 0 0 0 0 0 0 0 0 0 0 0 0 0 0 0 0 0 0 0 0 0 0 0 0 0 0 0 0 0 0 0 0 0 0 0 0 0 0 0 0 0 0 0 0 0 0 0 0 0 0 0 0 0 0 0 0 0 0 0 0 0 0 0 0 0 0 0 0 0 0 0 0 0 0 0 0 0 0 0 0 0 0 0 0 0 0 0 0 0 0 0 0 0 0 0 0 0 0 0 0 0 0 0 0 0 0 0 0 0 0 0 0 0 0 0 0 0 0 0 0 0 0 0 0 0 0 0 0 0 0 0 0 0 0 0 0 0 0 0 0 0 0 0 0 0 0 0 0 0 0 0 0 0 0 0 0 0 0 0 0 0 0 0 0 0 0 0 0 0 0 0 0 0 0 0 0 0 0 0 0 0 0 0 0 0 0 0 0 0 0 0 0 0 0 0 0 0 0 0 0 0 0 0 0 0 0 0 0 0 0 0 0 0 0 0 0 0 0 0 0 0 0 0 0 0 0 0 0 0 0 0 0 0 0 0 0 0 0 0 0 0 0 0 0 0 0 0 0 0 0 0 0 0 0 0 0 0 0 0 0 0 0 0 0 0 0 0 0 0 0 0 0 0 0 0 0 0 0 0 0 0 0 0 0 0 0 0 0 0 0 0 0 0 0 0 0 0 0 0 0 0 0 0 0 0 0 0 0 0 0 0 0 0 0 0 0 0 0 0 0 0 0 0 0 0 0 0 0 0 0 0 0 0 0 0 0 0 0 0 0 0 0 0 0 0 0 0 0 0 0 0 0 0 0 0 0 0 0 0 0 0 0 0 0 0 0 0 0 0 0 0 0 0 0 0 0 0 0 0 0 0 0 0 0 0 0 0 0 0 0 0 0 0 0 0 0 0 0 0 0 0 0 0 0 0 0 0 0 0 0 0 0 0 0 0 0 0 0 0 0 0 0 0 0 0 0 0 0 0 0 0 0 0 0 0 0 0 0 0 0 0 0 0 0 0 0 0 0 0 0 0 0 0 0 0 0 0 0 0 0 0 0 0 0 0 0 0 0 0 0 0 0 0 0 0 0 0 0 0 0 0 0 0 0 0 0 0 0 0 0 0 0 0 0 0 0 0 0 0 0 0 0 0 0 0 0 0 0 0 0 0 0 0 0 0 0 0 0 0 0 0 0 0 0 0 0 0 0 0 0 0 0 0 0 0 0 0 0 0 0 0 0 0 0 0 0 0 0 0 0 0 0 0 0 0 0 0 0 0 0 0 0 0 0 0 0 0 0 0 0 0 0 0 0 0 0 0 0 0 0 0 0 0 0 0 0 0 0 0 0 0 0 0 0 0 0 0 0 0 0 0 0 0 0 0 0 0 0 0 0 0 0 0 0 0 0 0 0 0 0 0 0 0 0 0 0 0 0 0 0 0 0 0 0 0 0 0 0 0 0 0 0 0 0 0 0 0 0 0 0 0 0 0 0 0 0 0 0 0 0 0 0 0 0 0 0 0 0 0 0 0 0 0 0 0 0 0 0 0 0 0 0 0 0 0 0 0 0 0 0 0 0 0 0 0 0 0 0 0 0 0 0 0 0 0 0 0 0 0 0 0 0 0 0 0 0 0 0 0 0 0 0 0 0 0 0 0 0 0 0 0 0 0 0 0 0 0 0 0 0 0 0 0 0 0 0 0 0 0 0 0 0 0 0 0 0 0 0 0 0 0 0 0 0 0 0 0 0 0 0 0 0 0 0 0 0 0 0 0 0 0 0 0 0 0 0 0 0 0 0 0 0 0 0 0 0 0 0 0 0 0 0 0 0 0 0 0 0 0 0 0 0 0 0 0 0 0 0 0 0 0 0 0 0 0 0 0 0 0 0 0 0 0 0 0 0 0 0 0 0 0 0 0 0 0 0 0 0 0 0 0 0 0 0 0 0 0 0 0 0 0 0 0 0 0 0 0 0 0 0 0 0 0 0 0 0 0 0 0 0 0 0 0 0 0 0 0 0 0 0 0 0 0 0 0 0 0 0 0 0 0 0 0 0 0 0 0 0 0 0 0 0 0 0 0 0 0 0 0 0 0 0 0 0 0 0 0 0 0 0 0 0 0 0 0 0 0 0 0 0 0 0 0 0 0 0 0 0 0 0 0 0 0 0 0 0 0 0 0 0 0 0 0 0 0 0 0 0 0 0 0 0 0 0 0 0 0 0 0 0 0 0 0 0 0 0 0 0 0 0 0 0 0 0 0 0 0 0 0 0 0 0 0 0 0 0 0 0 0 0 0 0 0 0 0 0 0 0 0 0 0 0 0 0 0 0 0 0 0 0 0 0 0 0 0 0 0 0 0 0 0 0 0 0 0 0 0 0 0 0 0 0 0 0 0 0 0 0 0 0 0 0 0 0 0 0 0 0 0 0 0 0 0 0 0 0 0 0 0 0 0 0 0 0 0 0 0 0 0 0 0 0 0 0 0 0 0 0 0 0 0 0 0 0 0 0 0 0 0 0 0 0 0 0 0 0 0 0 0 0 0 0 0 0 0 0 0 0 0 0 0 0 0 0 0 0 0 0 0 0 0 0 0 0 0 0 0 0 0 0 0 0 0 0 0 0 0 0 0 0 0 0 0 0 0 0 </DataArray>